132
	Energy:      94.2635868
N        -48.95548       -2.59682      -13.81910
C        -47.50743       -2.37333      -13.63264
C        -47.07222       -2.16923      -12.14269
O        -47.75087       -1.62676      -11.26985
H        -49.50811       -1.90591      -13.31290
H        -47.01776       -3.28319      -14.00349
C        -47.00627       -1.19205      -14.45512
H        -47.31944       -1.26795      -15.50159
H        -47.37091       -0.24276      -14.04940
H        -45.91059       -1.15630      -14.44331
H        -49.20724       -2.47489      -14.80456
N        -45.75938       -2.58238      -11.93127
C        -45.09995       -2.57183      -10.60895
C        -43.55968       -2.51391      -10.81380
O        -43.03165       -2.57879      -11.92609
C        -45.58706       -3.80798       -9.82296
C        -45.48624       -3.68605       -8.30243
C        -46.13389       -4.84900       -7.57273
O        -46.66787       -5.81384       -8.10538
N        -46.02985       -4.75847       -6.21366
H        -45.41342       -1.64950      -10.10388
H        -45.32089       -3.10708      -12.68558
H        -45.04520       -4.70006      -10.16030
H        -46.64305       -3.99261      -10.06511
H        -45.96963       -2.76078       -7.96702
H        -44.44038       -3.66859       -7.98782
H        -46.46510       -5.48947       -5.66330
H        -45.64463       -3.95661       -5.73474
N        -42.83668       -2.36410       -9.65355
C        -41.39863       -2.38006       -9.61504
C        -41.09203       -2.35040       -8.13583
O        -41.98018       -2.18593       -7.30275
H        -41.02825       -3.29598      -10.08247
H        -41.00905       -1.49053      -10.11493
H        -43.27306       -2.20511       -8.75477
N        -39.76831       -2.52281       -7.85491
C        -39.19306       -2.50584       -6.52440
C        -37.67204       -2.50714       -6.76996
O        -37.16098       -2.71997       -7.87048
H        -39.05165       -2.58773       -8.57775
H        -39.48646       -1.57230       -6.03233
C        -39.59862       -3.71738       -5.69801
H        -40.68395       -3.76955       -5.57109
H        -39.27340       -4.64744       -6.17813
H        -39.14572       -3.68537       -4.70164
N        -36.92455       -2.26334       -5.64138
C        -35.46614       -2.29238       -5.65833
C        -35.00124       -2.27393       -4.18651
O        -35.73681       -1.93071       -3.25881
C        -34.87907       -1.09356       -6.42976
H        -35.51746       -0.81338       -7.27627
H        -34.86031       -0.20847       -5.78024
C        -33.49049       -1.34052       -6.98383
C        -32.36468       -0.74172       -6.40144
H        -32.47143       -0.08941       -5.53949
C        -31.08899       -0.97590       -6.91855
H        -30.21850       -0.51975       -6.45684
C        -30.93671       -1.79284       -8.03094
C        -32.04038       -2.39551       -8.62601
H        -31.93602       -3.03384       -9.49668
C        -33.31514       -2.17183       -8.09996
H        -34.18129       -2.63596       -8.57325
O        -29.67660       -1.97666       -8.52056
H        -29.74623       -2.54001       -9.30805
H        -35.16902       -3.24927       -6.10638
H        -37.40756       -2.05431       -4.77182
N        -33.68569       -2.64299       -3.98543
C        -33.04470       -2.60411       -2.66863
C        -31.48865       -2.64730       -2.80611
O        -30.90783       -3.08044       -3.80421
C        -33.59058       -3.74428       -1.76556
C        -33.08026       -5.11874       -2.20464
C        -33.32874       -3.52923       -0.27235
H        -33.30885       -1.63251       -2.22868
H        -33.12538       -2.80333       -4.81867
H        -34.68264       -3.76651       -1.87035
H        -33.28624       -5.29259       -3.26573
H        -33.57555       -5.91148       -1.63521
H        -32.00169       -5.21877       -2.04515
H        -33.93571       -4.22489        0.31859
H        -33.60108       -2.51446        0.03617
H        -32.28411       -3.70935       -0.00302
N        -30.80814       -2.22073       -1.67696
C        -29.35148       -2.25353       -1.57114
C        -28.87938       -2.19898       -0.09391
O        -29.62007       -1.90563        0.84218
H        -31.32043       -1.86261       -0.87778
H        -29.02309       -3.21248       -1.99448
C        -28.71947       -1.11310       -2.36406
H        -29.05253       -1.11612       -3.40691
H        -28.98814       -0.14431       -1.92951
H        -27.62681       -1.18543       -2.36436
N        -27.53856       -2.51593        0.03516
C        -26.82120       -2.57973        1.31300
C        -25.28276       -2.61386        1.06608
O        -24.75465       -2.95122        0.00678
C        -27.30055       -3.79904        2.12267
C        -26.94460       -3.75094        3.61168
C        -27.67773       -4.84686        4.38923
C        -27.21688       -4.89196        5.84474
N        -27.91081       -5.95404        6.56033
H        -27.06729       -1.65397        1.84882
H        -26.89231       -4.71696        1.68149
H        -28.39144       -3.88254        2.04298
H        -27.20444       -2.77144        4.03130
H        -25.86757       -3.89470        3.74144
H        -27.49332       -5.81687        3.91088
H        -28.75918       -4.66462        4.34543
H        -27.42012       -3.93441        6.33612
H        -26.13680       -5.06911        5.89272
H        -27.53109       -6.04011        7.50085
H        -27.75535       -6.84719        6.09576
H        -27.08425       -2.89087       -0.79064
N        -24.53031       -2.26781        2.18146
C        -23.06821       -2.31735        2.19066
C        -22.54481       -2.34180        3.65600
O        -23.29724       -2.30198        4.63003
H        -24.99146       -2.03709        3.06160
H        -22.76116       -3.25327        1.70832
C        -22.48933       -1.12634        1.43312
H        -22.86997       -1.08125        0.40763
H        -22.75487       -0.18501        1.92705
H        -21.39764       -1.17720        1.37780
N        -21.18015       -2.42558        3.81227
C        -20.57172       -2.43814        5.13978
C        -19.06263       -2.44603        4.99372
O        -18.48174       -2.45684        3.91197
H        -20.89090       -1.53994        5.67564
H        -20.90225       -3.34051        5.66130
H        -20.53140       -2.45502        3.02962
O        -18.41016       -2.44115        6.19441
H        -18.98041       -2.43041        6.99608
